46
Atoms. Timestep: 0
Pt 0.989931 0.989931 0.989931
Pt 0.989931 2.96979 2.96979
Pt 2.96979 0.989931 2.96979
Pt 2.96979 2.96979 0.989931
Pt 4.94965 0.989931 0.989931
Pt 4.94965 2.96979 2.96979
Pt 6.92951 0.989931 2.96979
Pt 6.92951 2.96979 0.989931
Pt 8.90938 0.989931 0.989931
Pt 8.90938 2.96979 2.96979
Pt 10.8892 0.989931 2.96979
Pt 10.8892 2.96979 0.989931
Pt 12.8691 0.989931 0.989931
Pt 12.8691 2.96979 2.96979
Pt 14.849 0.989931 2.96979
Pt 14.849 2.96979 0.989931
Pt 16.8288 0.989931 0.989931
Pt 16.8288 2.96979 2.96979
Pt 18.8087 0.989931 2.96979
Pt 18.8087 2.96979 0.989931
Pt 20.7885 0.989931 0.989931
Pt 20.7885 2.96979 2.96979
Pt 22.7684 0.989931 2.96979
Pt 22.7684 2.96979 0.989931
Pt 24.7483 0.989931 0.989931
Pt 24.7483 2.96979 2.96979
Pt 26.7281 0.989931 2.96979
Pt 26.7281 2.96979 0.989931
Pt 28.708 0.989931 0.989931
Pt 28.708 2.96979 2.96979
Pt 30.6878 0.989931 2.96979
Pt 30.6878 2.96979 0.989931
Pt 32.6677 0.989931 0.989931
Pt 32.6677 2.96979 2.96979
Pt 34.6476 0.989931 2.96979
Pt 34.6476 2.96979 0.989931
Pt 36.6274 0.989931 0.989931
Pt 36.6274 2.96979 2.96979
Pt 38.6073 0.989931 2.96979
Pt 38.6073 2.96979 0.989931
Pt 0.989931 4.94965 0.989931
Pt 0.989931 6.92951 2.96979
Pt 2.96979 4.94965 2.96979
Pt 2.96979 6.92951 0.989931
Pt 4.94965 4.94965 0.989931
Pt 4.94965 6.92951 2.96979
46
Atoms. Timestep: 1
Pt 0.989931 0.989931 0.989931
Pt 0.989931 2.96979 2.96979
Pt 2.96979 0.989931 2.96979
Pt 2.96979 2.96979 0.989931
Pt 4.94965 0.989931 0.989931
Pt 4.94965 2.96979 2.96979
Pt 6.92951 0.989931 2.96979
Pt 6.92951 2.96979 0.989931
Pt 8.90938 0.989931 0.989931
Pt 8.90938 2.96979 2.96979
Pt 10.8892 0.989931 2.96979
Pt 10.8892 2.96979 0.989931
Pt 12.8691 0.989931 0.989931
Pt 12.8691 2.96979 2.96979
Pt 14.849 0.989931 2.96979
Pt 14.849 2.96979 0.989931
Pt 16.8288 0.989931 0.989931
Pt 16.8288 2.96979 2.96979
Pt 18.8087 0.989931 2.96979
Pt 18.8087 2.96979 0.989931
Pt 20.7885 0.989931 0.989931
Pt 20.7885 2.96979 2.96979
Pt 22.7684 0.989931 2.96979
Pt 22.7684 2.96979 0.989931
Pt 24.7483 0.989931 0.989931
Pt 24.7483 2.96979 2.96979
Pt 26.7281 0.989931 2.96979
Pt 26.7281 2.96979 0.989931
Pt 28.708 0.989931 0.989931
Pt 28.708 2.96979 2.96979
Pt 30.6878 0.989931 2.96979
Pt 30.6878 2.96979 0.989931
Pt 32.6677 0.989931 0.989931
Pt 32.6677 2.96979 2.96979
Pt 34.6476 0.989931 2.96979
Pt 34.6476 2.96979 0.989931
Pt 36.6274 0.989931 0.989931
Pt 36.6274 2.96979 2.96979
Pt 38.6073 0.989931 2.96979
Pt 38.6073 2.96979 0.989931
Pt 0.989931 4.94965 0.989931
Pt 0.989931 6.92951 2.96979
Pt 2.96979 4.94965 2.96979
Pt 2.96979 6.92951 0.989931
Pt 4.94965 4.94965 0.989931
Pt 4.94965 6.92951 2.96979
46
Atoms. Timestep: 2
Pt 0.989931 0.989931 0.989931
Pt 0.989931 2.96979 2.96979
Pt 2.96979 0.989931 2.96979
Pt 2.96979 2.96979 0.989931
Pt 4.94965 0.989931 0.989931
Pt 4.94965 2.96979 2.96979
Pt 6.92951 0.989931 2.96979
Pt 6.92951 2.96979 0.989931
Pt 8.90938 0.989931 0.989931
Pt 8.90938 2.96979 2.96979
Pt 10.8892 0.989931 2.96979
Pt 10.8892 2.96979 0.989931
Pt 12.8691 0.989931 0.989931
Pt 12.8691 2.96979 2.96979
Pt 14.849 0.989931 2.96979
Pt 14.849 2.96979 0.989931
Pt 16.8288 0.989931 0.989931
Pt 16.8288 2.96979 2.96979
Pt 18.8087 0.989931 2.96979
Pt 18.8087 2.96979 0.989931
Pt 20.7885 0.989931 0.989931
Pt 20.7885 2.96979 2.96979
Pt 22.7684 0.989931 2.96979
Pt 22.7684 2.96979 0.989931
Pt 24.7483 0.989931 0.989931
Pt 24.7483 2.96979 2.96979
Pt 26.7281 0.989931 2.96979
Pt 26.7281 2.96979 0.989931
Pt 28.708 0.989931 0.989931
Pt 28.708 2.96979 2.96979
Pt 30.6878 0.989931 2.96979
Pt 30.6878 2.96979 0.989931
Pt 32.6677 0.989931 0.989931
Pt 32.6677 2.96979 2.96979
Pt 34.6476 0.989931 2.96979
Pt 34.6476 2.96979 0.989931
Pt 36.6274 0.989931 0.989931
Pt 36.6274 2.96979 2.96979
Pt 38.6073 0.989931 2.96979
Pt 38.6073 2.96979 0.989931
Pt 0.989931 4.94965 0.989931
Pt 0.989931 6.92951 2.96979
Pt 2.96979 4.94965 2.96979
Pt 2.96979 6.92951 0.989931
Pt 4.94965 4.94965 0.989931
Pt 4.94965 6.92951 2.96979
